LAMMPS data file via write_data, version 30 Mar 2018, timestep = 100

30 atoms
2 atom types
20 bonds
1 bond types
10 angles
1 angle types

0.0000000000000000e+00 4.0000000000000000e+01 xlo xhi
0.0000000000000000e+00 4.0000000000000000e+01 ylo yhi
0.0000000000000000e+00 4.0000000000000000e+01 zlo zhi

Masses

1 1.00794
2 15.9994

Pair Coeffs # lj/long/coul/long

1 0 0
2 0.15535 3.166

Bond Coeffs # harmonic

1 0 1

Angle Coeffs # harmonic

1 0 109.47

Atoms # full

4 2 2 -8.4760000000000002e-01 8.3903882077745724e+00 8.0286501570225361e+00 6.1589173446814964e+00 0 0 0
5 2 1 4.2380000000000001e-01 8.6942658589344006e+00 8.9088622922594158e+00 6.5234504506984132e+00 0 0 0
6 2 1 4.2380000000000001e-01 7.7720370149070934e+00 7.5926572325126136e+00 6.8127883370938376e+00 0 0 0
2 1 1 4.2380000000000001e-01 1.3407964339887508e+00 2.5321092877650269e+01 7.5169541620429370e-01 0 0 0
3 1 1 4.2380000000000001e-01 3.9924425355416332e+01 2.5379895973797321e+01 1.5622881469174716e+00 -1 0 0
1 1 2 -8.4760000000000002e-01 3.7535773355118124e-01 2.5061502080956672e+01 7.2845067181410950e-01 1 0 0
7 3 2 -8.4760000000000002e-01 2.6669016732728621e+00 3.6417274685886554e+01 1.0207781956668189e+01 0 0 0
8 3 1 4.2380000000000001e-01 3.2428434151396206e+00 3.6295269004792104e+01 9.3994472940424068e+00 0 0 0
9 3 1 4.2380000000000001e-01 1.7105913332561020e+00 3.6257666869243785e+01 9.9628431828498005e+00 0 0 0
10 4 2 -8.4760000000000002e-01 2.6640483980349249e+01 3.4015701607189044e+01 1.2570240593677328e+01 0 0 0
11 4 1 4.2380000000000001e-01 2.7262982861579790e+01 3.4753416661024630e+01 1.2831527628218936e+01 0 0 0
12 4 1 4.2380000000000001e-01 2.5739095628932425e+01 3.4183041774638681e+01 1.2969609678227169e+01 0 0 0
13 5 2 -8.4760000000000002e-01 7.4687479555651253e+00 8.7186582906962968e+00 1.3700638524290202e+01 0 0 0
14 5 1 4.2380000000000001e-01 6.7428302323109133e+00 9.0311282443873200e+00 1.3087935074926746e+01 0 0 0
15 5 1 4.2380000000000001e-01 8.1619472130832253e+00 9.4340649099590337e+00 1.3788201971686943e+01 0 0 0
19 7 2 -8.4760000000000002e-01 3.8898924433920175e+00 2.3755315808893091e+01 1.9658432077850016e+01 0 0 0
20 7 1 4.2380000000000001e-01 4.7651065770380612e+00 2.3608337522600124e+01 1.9197566915843648e+01 0 0 0
21 7 1 4.2380000000000001e-01 3.8138168507101295e+00 2.4714342717897821e+01 1.9931341930987347e+01 0 0 0
22 8 2 -8.4760000000000002e-01 6.4426768901346483e+00 1.6334589553667115e+01 2.5951014998929139e+01 0 0 0
23 8 1 4.2380000000000001e-01 6.4636575586974532e+00 1.5995610749797907e+01 2.5010455059862416e+01 0 0 0
24 8 1 4.2380000000000001e-01 7.3710233065050703e+00 1.6344292863108400e+01 2.6322603617339066e+01 0 0 0
16 6 2 -8.4760000000000002e-01 2.5601377837248933e+01 3.0253538241398164e+01 1.7153505852004621e+01 0 0 0
17 6 1 4.2380000000000001e-01 2.5761648864411413e+01 3.0614569309505910e+01 1.6234828939715069e+01 0 0 0
18 6 1 4.2380000000000001e-01 2.6410096236553006e+01 2.9751610718112715e+01 1.7460163258746114e+01 0 0 0
28 10 2 -8.4760000000000002e-01 2.4410582470806823e+01 1.9225673362032161e-01 3.1066652429264753e+01 0 0 0
29 10 1 4.2380000000000001e-01 2.3821930017131539e+01 1.1999574728719864e-01 3.1871801221330131e+01 0 0 0
30 10 1 4.2380000000000001e-01 2.3866453574736919e+01 4.8763406344977528e-01 3.0281365544643162e+01 0 0 0
25 9 2 -8.4760000000000002e-01 3.5417718901148305e+01 7.2905133620768749e+00 2.8602823536729225e+01 0 0 0
26 9 1 4.2380000000000001e-01 3.5436233578361787e+01 8.1726464062743780e+00 2.8132188095927660e+01 0 0 0
27 9 1 4.2380000000000001e-01 3.4537265539332793e+01 7.1767074128433377e+00 2.9063094686692331e+01 0 0 0

Velocities

4 -3.5844743220008728e-03 -4.3837298974642039e-03 4.9634290337499188e-03
5 -9.7400867431097753e-03 2.3869359337231237e-03 -6.2510181117462517e-03
6 2.8983131743563081e-02 -1.7426513688380430e-02 2.7064003297781809e-02
2 3.1513394998021094e-03 -7.9060084123288125e-03 8.9483006513522371e-03
3 -6.5462509693066480e-03 -1.2980980731732920e-02 -7.6279811076340855e-03
1 3.9340442258031455e-03 -9.7293107278429852e-03 -3.2020898137842288e-03
7 -1.4485843042546171e-03 1.5949402910841542e-02 3.7775437221757751e-04
8 -1.0666451808650100e-02 2.5727463078568363e-03 -4.1730414766895842e-03
9 -3.6098888592578887e-03 6.0771490005169888e-03 1.5252637049136274e-02
10 8.0452523737520425e-03 3.8063565487245670e-03 -6.5706821673716827e-04
11 1.3843094114892103e-02 -5.3466682956582693e-03 1.1376006456747773e-02
12 1.2724964315960773e-02 -2.1135727136786294e-03 1.2390388638908510e-02
13 5.3993989173761504e-03 8.1806939858962305e-04 -3.1018189474849123e-03
14 9.3072284128655255e-03 1.3272453815178942e-02 -1.3795122974503947e-03
15 1.7662482246017012e-02 -1.0904102401324771e-02 -4.4015952137217975e-03
19 -3.9911172528711829e-03 -7.1389582728980747e-03 -8.6387562784761805e-03
20 -9.8227203826281081e-03 2.5659393292168983e-03 -2.2809546727836437e-02
21 -9.6184015747374646e-03 -8.2814434518909269e-03 -6.1934809913148110e-03
22 -9.6282159776181768e-04 -7.0606974355294418e-03 7.7743111960959553e-04
23 7.1027584400894387e-03 -6.3605968995737745e-03 7.0467495607673240e-04
24 -2.0571421437997461e-03 8.4355854363198889e-03 3.1068109075277363e-03
16 -6.0222800039644473e-03 8.5939236112024045e-03 1.2042026210084948e-03
17 -9.6258744555569268e-03 -1.8739745816105491e-02 -1.0172532055997819e-02
18 -2.4556378104310932e-02 -2.6885624268793595e-02 -8.0102817637948756e-03
28 -2.5505336060930128e-03 -4.2543770707964852e-03 2.0843540203456610e-03
29 1.1643205412455026e-03 2.2361572165174606e-02 7.1905923811273822e-03
30 1.5765231391437391e-03 8.3278974605917808e-03 3.9577765839920549e-03
25 -2.5634557339949461e-04 4.9843263960342851e-03 4.2480833531076652e-03
26 1.6028027946074223e-02 6.8917089300298854e-03 8.4644631688812113e-03
27 -2.4833292683112238e-03 1.8893897335817266e-02 3.4287573026246408e-03

Bonds

1 1 4 5
2 1 4 6
3 1 1 2
4 1 1 3
5 1 7 8
6 1 7 9
7 1 10 11
8 1 10 12
9 1 13 14
10 1 13 15
11 1 19 20
12 1 19 21
13 1 22 23
14 1 22 24
15 1 16 17
16 1 16 18
17 1 28 29
18 1 28 30
19 1 25 26
20 1 25 27

Angles

1 1 5 4 6
2 1 2 1 3
3 1 8 7 9
4 1 11 10 12
5 1 14 13 15
6 1 20 19 21
7 1 23 22 24
8 1 17 16 18
9 1 29 28 30
10 1 26 25 27
