LAMMPS data file via write_data, version 30 Mar 2018, timestep = 100

30 atoms
2 atom types
20 bonds
1 bond types
10 angles
1 angle types

0.0000000000000000e+00 4.0000000000000000e+01 xlo xhi
0.0000000000000000e+00 4.0000000000000000e+01 ylo yhi
0.0000000000000000e+00 4.0000000000000000e+01 zlo zhi

Masses

1 1.00794
2 15.9994

Pair Coeffs # lj/long/coul/long

1 0 0
2 0.15535 3.166

Bond Coeffs # harmonic

1 0 1

Angle Coeffs # harmonic

1 0 109.47

Atoms # full

4 2 2 -8.4760000000000002e-01 8.3903882077745724e+00 8.0286501570225361e+00 6.1589173446814964e+00 0 0 0
5 2 1 4.2380000000000001e-01 8.6942658589344006e+00 8.9088622922594158e+00 6.5234504506984132e+00 0 0 0
6 2 1 4.2380000000000001e-01 7.7720370149070934e+00 7.5926572325126136e+00 6.8127883370938376e+00 0 0 0
2 1 1 4.2380000000000001e-01 1.3407964339887508e+00 2.5321092877650269e+01 7.5169541620429370e-01 0 0 0
3 1 1 4.2380000000000001e-01 3.9924425355416332e+01 2.5379895973797321e+01 1.5622881469174716e+00 -1 0 0
1 1 2 -8.4760000000000002e-01 3.7535773355118124e-01 2.5061502080956672e+01 7.2845067181410950e-01 1 0 0
7 3 2 -8.4760000000000002e-01 2.6669016732728621e+00 3.6417274685886554e+01 1.0207781956668189e+01 0 0 0
8 3 1 4.2380000000000001e-01 3.2428434151396206e+00 3.6295269004792104e+01 9.3994472940424068e+00 0 0 0
9 3 1 4.2380000000000001e-01 1.7105913332561020e+00 3.6257666869243785e+01 9.9628431828498005e+00 0 0 0
10 4 2 -8.4760000000000002e-01 2.6640483980349249e+01 3.4015701607189044e+01 1.2570240593677328e+01 0 0 0
11 4 1 4.2380000000000001e-01 2.7262982861579790e+01 3.4753416661024630e+01 1.2831527628218936e+01 0 0 0
12 4 1 4.2380000000000001e-01 2.5739095628932425e+01 3.4183041774638681e+01 1.2969609678227169e+01 0 0 0
13 5 2 -8.4760000000000002e-01 7.4687479555651253e+00 8.7186582906962968e+00 1.3700638524290202e+01 0 0 0
14 5 1 4.2380000000000001e-01 6.7428302323109133e+00 9.0311282443873200e+00 1.3087935074926746e+01 0 0 0
15 5 1 4.2380000000000001e-01 8.1619472130832253e+00 9.4340649099590337e+00 1.3788201971686943e+01 0 0 0
19 7 2 -8.4760000000000002e-01 3.8898924433920175e+00 2.3755315808893091e+01 1.9658432077850016e+01 0 0 0
20 7 1 4.2380000000000001e-01 4.7651065770380612e+00 2.3608337522600124e+01 1.9197566915843648e+01 0 0 0
21 7 1 4.2380000000000001e-01 3.8138168507101295e+00 2.4714342717897821e+01 1.9931341930987347e+01 0 0 0
22 8 2 -8.4760000000000002e-01 6.4426768901346483e+00 1.6334589553667115e+01 2.5951014998929139e+01 0 0 0
23 8 1 4.2380000000000001e-01 6.4636575586974532e+00 1.5995610749797907e+01 2.5010455059862416e+01 0 0 0
24 8 1 4.2380000000000001e-01 7.3710233065050703e+00 1.6344292863108400e+01 2.6322603617339066e+01 0 0 0
16 6 2 -8.4760000000000002e-01 2.5601377837248933e+01 3.0253538241398164e+01 1.7153505852004621e+01 0 0 0
17 6 1 4.2380000000000001e-01 2.5761648864411413e+01 3.0614569309505910e+01 1.6234828939715069e+01 0 0 0
18 6 1 4.2380000000000001e-01 2.6410096236553006e+01 2.9751610718112715e+01 1.7460163258746114e+01 0 0 0
28 10 2 -8.4760000000000002e-01 2.4410582470806823e+01 1.9225673362032161e-01 3.1066652429264753e+01 0 0 0
29 10 1 4.2380000000000001e-01 2.3821930017131539e+01 1.1999574728719864e-01 3.1871801221330131e+01 0 0 0
30 10 1 4.2380000000000001e-01 2.3866453574736919e+01 4.8763406344977528e-01 3.0281365544643162e+01 0 0 0
25 9 2 -8.4760000000000002e-01 3.5417718901148305e+01 7.2905133620768749e+00 2.8602823536729225e+01 0 0 0
26 9 1 4.2380000000000001e-01 3.5436233578361787e+01 8.1726464062743780e+00 2.8132188095927660e+01 0 0 0
27 9 1 4.2380000000000001e-01 3.4537265539332793e+01 7.1767074128433377e+00 2.9063094686692331e+01 0 0 0

Velocities

     1 0.0005657402 0.0073418446 -0.0081066039
     2 0.0007398023 0.0049725211 0.0111239053
     3 -0.0187343496 0.0219936048 -0.0241385846
     4 0.0080862000 0.0069335823 -0.0006954053
     5 0.0224570268 0.0008980518 0.0018985267
     6 0.0044558332 0.0130882099 -0.0000247341
     7 -0.0057113493 0.0006532656 -0.0007448769
     8 0.0122410285 -0.0434907046 0.0187091186
     9 -0.0046405347 0.0275633973 -0.0224609094
    10 -0.0110909691 0.0040797276 -0.0057639609
    11 -0.0048921733 0.0002146528 -0.0096195657
    12 -0.0032173930 0.0012615284 0.0131878008
    13 -0.0022720785 -0.0040266954 0.0007256922
    14 0.0130858137 -0.0214794352 -0.0263706510
    15 -0.0128707459 0.0049849981 0.0110035331
    16 0.0037009695 -0.0010826767 -0.0008153663
    17 0.0242707786 -0.0034647109 0.0018370962
    18 -0.0041165987 -0.0024380305 0.0175827606
    19 0.0009141800 -0.0038045109 -0.0079992388
    20 -0.0022087678 0.0047618253 -0.0166618884
    21 -0.0010643803 -0.0069360590 0.0024537323
    22 -0.0062359215 0.0038117629 0.0011741415
    23 -0.0349988975 0.0081452648 -0.0010292606
    24 0.0047333424 -0.0008724629 -0.0261082450
    25 -0.0032823578 -0.0004725994 0.0045915464
    26 0.0155865289 0.0013976145 0.0088392691
    27 -0.0024514303 0.0199038946 0.0112192900
    28 -0.0007165738 0.0020891608 0.0014272265
    29 -0.0010987810 -0.0114594848 -0.0000681812
    30 -0.0045094099 -0.0054090173 0.0012349400

Bonds 

1 1 4 5
2 1 4 6
3 1 1 2
4 1 1 3
5 1 7 8
6 1 7 9
7 1 10 11
8 1 10 12
9 1 13 14
10 1 13 15
11 1 19 20
12 1 19 21
13 1 22 23
14 1 22 24
15 1 16 17
16 1 16 18
17 1 28 29
18 1 28 30
19 1 25 26
20 1 25 27

Angles

1 1 5 4 6
2 1 2 1 3
3 1 8 7 9
4 1 11 10 12
5 1 14 13 15
6 1 20 19 21
7 1 23 22 24
8 1 17 16 18
9 1 29 28 30
10 1 26 25 27
